Lammps data file for waters at minimum potential

 6 atoms
 4 bonds
 2 angles
 0 dihedrals
 0 impropers
 
 2 atom types
 1 bond types
 1 angle types

 -100.0000000000 100.00000000000  xlo xhi
 -100.0000000000 100.00000000000  ylo yhi
 -100.0000000000 100.00000000000  zlo zhi

 Masses

    1  15.9990
    2   1.0079

 Pair Coefficients

    1  0.15535  3.1600
    2  0.00000  0.0000

 Atoms

    1  1  1  0.8476000000     -2.20774007      -7.98329020       11.0024996
    2  1  2 -0.4238000000     -2.18983006      -7.66574001       11.9505997
    3  1  2 -0.4238000000     -2.30380011      -7.19869995       10.3900003
    4  2  1  0.8476000000      1.34597408      -7.98329020       11.0024996 
    5  2  2 -0.4238000000      1.36441425      -7.66574001       11.9505997
    6  2  2 -0.4238000000      1.24991477      -7.19869995       10.3900003

 Bonds

    1  1  1  2
    2  1  1  3
    3  1  4  5
    4  1  4  6

 Angles

    1  1  2  1  3
    2  1  5  4  6
